                         Program Version 4.2.0 -  RELEASE  -
|  1> ! dlpno-ccsd(t) cc-pvdz cc-pvdz/c cc-pvtz/jk rijk verytightscf TightPNO
|  2>
|  3> *xyz 0 1
|  4> O -1.47509614629583 -1.29358571885374 2.29818864036820
|  5> H -0.87783948760158 -0.98540169212890 1.58987042714267
|  6> H -1.22399221548771 -2.20523304094991 2.47014489963764
|  7> **                         ****END OF INPUT****

CARTESIAN COORDINATES (ANGSTROEM)
---------------------------------
  O     -1.475096   -1.293586    2.298189
  H     -0.877839   -0.985402    1.589870
  H     -1.223992   -2.205233    2.470145

 Total Charge           Charge          ....    0
 Multiplicity           Mult            ....    1
 Number of Electrons    NEL             ....   10
 Basis Dimension        Dim             ....   24

ORBITAL ENERGIES
----------------

  NO   OCC          E(Eh)            E(eV)
   0   2.0000     -20.551813      -559.2433
   1   2.0000      -1.330108       -36.1941
   2   2.0000      -0.695242       -18.9185
   3   2.0000      -0.562153       -15.2970
   4   2.0000      -0.491927       -13.3860
   5   0.0000       0.183774         5.0007
   6   0.0000       0.254418         6.9231
   7   0.0000       0.784263        21.3409
   8   0.0000       0.839454        22.8427
   9   0.0000       1.163575        31.6625

MULLIKEN ATOMIC CHARGES
-----------------------
   0 O :   -0.321923
   1 H :    0.164523
   2 H :    0.157401
Sum of atomic charges:   -0.0000000

LOEWDIN ATOMIC CHARGES
----------------------
   0 O :   -0.108074
   1 H :    0.059670
   2 H :    0.048404

  Mayer bond orders larger than 0.100000
B(  0-O ,  1-H ) :   1.0119 B(  0-O ,  2-H ) :   1.0179

E(0)                                       ...    -76.025805760
E(0)                                       ...    -76.025805760
E(CORR)(strong-pairs)                      ...     -0.212045264
E(CORR)(weak-pairs)                        ...     -0.000000338
E(CORR)(corrected)                         ...     -0.212045602
E(TOT)                                     ...    -76.237851362
E(CCSD(T))                                 ...    -76.240820249
FINAL SINGLE POINT ENERGY       -76.240820249373

DIPOLE MOMENT
-------------
                                X             Y             Z
Electronic contribution:     -0.12267       0.08354       0.07923
Nuclear contribution   :      0.70614      -0.50230      -0.44645
                        -----------------------------------------
Total Dipole Moment    :      0.58347      -0.41876      -0.36722
                        -----------------------------------------
Magnitude (a.u.)       :      0.80663
Magnitude (Debye)      :      2.05028

Rotational constants in cm-1:    27.474514    14.033817     9.289034
Rotational constants in MHz : 823665.217431 420723.257281 278478.240701

                             ****ORCA TERMINATED NORMALLY****
TOTAL RUN TIME: 0 days 0 hours 0 minutes 3 seconds 484 msec
