                         Program Version 4.2.0 -  RELEASE  -
|  1> ! PBE0 D3 def2-TZVP Opt
|  2> *xyz 0 1
|  3> C(1) 0.18726407287156 0.08210467619149 0.19811955853244
|  4> H(1) 1.07120465088431 -0.00229078749404 -0.46002874025040
|  5> H(1) -0.15524644515923 1.12171178448874 0.04316776563623
|  6> O(2) -1.47509614629583 -1.29358571885374 2.29818864036820
|  7> H(2) -0.87783948760158 -0.98540169212890 1.58987042714267
|  8> H(2) -1.22399221548771 -2.20523304094991 2.47014489963764
|  9> **                         ****END OF INPUT****
 Total Charge           Charge          ....    0
 Multiplicity           Mult            ....    1
 Number of Electrons    NEL             ....   18
Dispersion correction           -0.001318764
FINAL SINGLE POINT ENERGY      -115.476222575554
Dispersion correction            ... done
Dispersion correction           -0.001329186
FINAL SINGLE POINT ENERGY      -115.476252554907
Dispersion correction            ... done
Dispersion correction           -0.001329675
FINAL SINGLE POINT ENERGY      -115.476231935036
Dispersion correction            ... done
FINAL SINGLE POINT ENERGY      -115.476256008871
FINAL SINGLE POINT ENERGY      -115.476259421369
FINAL SINGLE POINT ENERGY      -115.476266411117
FINAL SINGLE POINT ENERGY      -115.476273380268
FINAL SINGLE POINT ENERGY      -115.476281641149
FINAL SINGLE POINT ENERGY      -115.476285379963
FINAL SINGLE POINT ENERGY      -115.476289199877
FINAL SINGLE POINT ENERGY      -115.476293735706
FINAL SINGLE POINT ENERGY      -115.476296104545
Dispersion correction            ... done
Dispersion correction           -0.001326938
FINAL SINGLE POINT ENERGY      -115.476294785540
Dispersion correction            ... done
Dispersion correction           -0.001326604
FINAL SINGLE POINT ENERGY      -115.476293020971
Dispersion correction            ... done
                    ***********************HURRAY********************

CARTESIAN COORDINATES (ANGSTROEM)
---------------------------------
  C      0.158328    0.108721    0.233327
  H      1.032407   -0.083436   -0.419629
  H     -0.105718    1.160959    0.009695
  O     -1.505910   -1.337873    2.272245
  H     -0.929295   -0.931121    1.599741
  H     -1.123517   -2.199945    2.444084

 Multiplicity           Mult            ....    1
 Number of Electrons    NEL             ....   18
 Basis Dimension        Dim             ....   86

ORBITAL ENERGIES
----------------

  NO   OCC          E(Eh)            E(eV)
   0   2.0000     -19.159607      -521.3594
   1   2.0000     -10.321998      -280.8758
   2   2.0000      -0.995517       -27.0894
   3   2.0000      -0.714759       -19.4496
   4   2.0000      -0.507505       -13.8099
   5   2.0000      -0.448998       -12.2179
   6   2.0000      -0.369739       -10.0611
   7   2.0000      -0.292694        -7.9646
   8   2.0000      -0.289379        -7.8744
   9   0.0000      -0.152352        -4.1457
  10   0.0000       0.050545         1.3754
  11   0.0000       0.082500         2.2449
  12   0.0000       0.106359         2.8942
  13   0.0000       0.194773         5.3000

MULLIKEN ATOMIC CHARGES
-----------------------
   0 C :   -0.308785
   1 H :    0.153307
   2 H :    0.154597
   3 O :   -0.667504
   4 H :    0.366654
   5 H :    0.301731
Sum of atomic charges:    0.0000000

LOEWDIN ATOMIC CHARGES
----------------------
   0 C :   -0.111922
   1 H :    0.090691
   2 H :    0.093175
   3 O :   -0.332477
   4 H :    0.118152
   5 H :    0.142381

  Mayer bond orders larger than 0.100000
B(  0-C ,  1-H ) :   0.9485 B(  0-C ,  2-H ) :   0.9463 B(  3-O ,  4-H ) :   0.8563
B(  3-O ,  5-H ) :   0.9162

Dispersion correction           -0.001326456
FINAL SINGLE POINT ENERGY      -115.476292566139

DIPOLE MOMENT
-------------
                                X             Y             Z
Electronic contribution:     -0.54052      -0.35530       0.58936
Nuclear contribution   :      1.66396       0.66023      -1.59183
                        -----------------------------------------
Total Dipole Moment    :      1.12343       0.30493      -1.00247
                        -----------------------------------------
Magnitude (a.u.)       :      1.53624
Magnitude (Debye)      :      3.90481

Rotational constants in cm-1:     7.426532     0.221986     0.215572
Rotational constants in MHz : 222641.836948  6654.980474  6462.699613

                             ****ORCA TERMINATED NORMALLY****
TOTAL RUN TIME: 0 days 0 hours 1 minutes 15 seconds 726 msec
