                         Program Version 4.2.0 -  RELEASE  -
|  1> ! dlpno-ccsd(t) cc-pvdz cc-pvdz/c cc-pvtz/jk rijk verytightscf TightPNO
|  2>
|  3> *xyz 0 1
|  4>   C      0.181852    0.072684    0.206196
|  5>   H      1.068934    0.007009   -0.462036
|  6>   H     -0.147563    1.121833    0.037099
|  7> **                         ****END OF INPUT****

CARTESIAN COORDINATES (ANGSTROEM)
---------------------------------
  C      0.181852    0.072684    0.206196
  H      1.068934    0.007009   -0.462036
  H     -0.147563    1.121833    0.037099

 Total Charge           Charge          ....    0
 Multiplicity           Mult            ....    1
 Number of Electrons    NEL             ....    8
 Basis Dimension        Dim             ....   24

ORBITAL ENERGIES
----------------

  NO   OCC          E(Eh)            E(eV)
   0   2.0000     -11.294255      -307.3323
   1   2.0000      -0.888106       -24.1666
   2   2.0000      -0.557137       -15.1605
   3   2.0000      -0.390955       -10.6384
   4   0.0000       0.062771         1.7081
   5   0.0000       0.195163         5.3107
   6   0.0000       0.260045         7.0762
   7   0.0000       0.585981        15.9454
   8   0.0000       0.695214        18.9177

MULLIKEN ATOMIC CHARGES
-----------------------
   0 C :   -0.115776
   1 H :    0.057888
   2 H :    0.057888
Sum of atomic charges:   -0.0000000

LOEWDIN ATOMIC CHARGES
----------------------
   0 C :   -0.001919
   1 H :    0.000956
   2 H :    0.000963

  Mayer bond orders larger than 0.100000
B(  0-C ,  1-H ) :   0.9812 B(  0-C ,  2-H ) :   0.9812

E(0)                                       ...    -38.881039294
E(0)                                       ...    -38.881039294
E(CORR)(strong-pairs)                      ...     -0.138458070
E(CORR)(weak-pairs)                        ...     -0.000000181
E(CORR)(corrected)                         ...     -0.138458251
E(TOT)                                     ...    -39.019497544
E(CCSD(T))                                 ...    -39.022370954
FINAL SINGLE POINT ENERGY       -39.022370953925

DIPOLE MOMENT
-------------
                                X             Y             Z
Electronic contribution:     -0.14359      -0.25328       0.21562
Nuclear contribution   :      0.44800       0.79006      -0.67266
                        -----------------------------------------
Total Dipole Moment    :      0.30440       0.53679      -0.45704
                        -----------------------------------------
Magnitude (a.u.)       :      0.76791
Magnitude (Debye)      :      1.95188

Rotational constants in cm-1:    19.734814    11.254907     7.167328
Rotational constants in MHz : 591634.832171 337413.635839 214871.093044

                             ****ORCA TERMINATED NORMALLY****
TOTAL RUN TIME: 0 days 0 hours 0 minutes 3 seconds 144 msec
