                         Program Version 4.2.0 -  RELEASE  -
|  1> ! PBE0 D3 def2-TZVP
|  2>
|  3> *xyz 0 1
|  4> O -1.47509614629583 -1.29358571885374 2.29818864036820
|  5> H -0.87783948760158 -0.98540169212890 1.58987042714267
|  6> H -1.22399221548771 -2.20523304094991 2.47014489963764
|  7> **                         ****END OF INPUT****

CARTESIAN COORDINATES (ANGSTROEM)
---------------------------------
  O     -1.475096   -1.293586    2.298189
  H     -0.877839   -0.985402    1.589870
  H     -1.223992   -2.205233    2.470145

 Total Charge           Charge          ....    0
 Multiplicity           Mult            ....    1
 Number of Electrons    NEL             ....   10
 Basis Dimension        Dim             ....   43

ORBITAL ENERGIES
----------------

  NO   OCC          E(Eh)            E(eV)
   0   2.0000     -19.202986      -522.5398
   1   2.0000      -1.034536       -28.1512
   2   2.0000      -0.544271       -14.8104
   3   2.0000      -0.400540       -10.8992
   4   2.0000      -0.325999        -8.8709
   5   0.0000       0.029944         0.8148
   6   0.0000       0.104548         2.8449
   7   0.0000       0.372322        10.1314
   8   0.0000       0.419595        11.4177
   9   0.0000       0.445008        12.1093

MULLIKEN ATOMIC CHARGES
-----------------------
   0 O :   -0.650786
   1 H :    0.326217
   2 H :    0.324569
Sum of atomic charges:   -0.0000000

LOEWDIN ATOMIC CHARGES
----------------------
   0 O :   -0.318593
   1 H :    0.164540
   2 H :    0.154052

  Mayer bond orders larger than 0.100000
B(  0-O ,  1-H ) :   0.9040 B(  0-O ,  2-H ) :   0.9059

Dispersion correction           -0.000276860
FINAL SINGLE POINT ENERGY       -76.377314789135

DIPOLE MOMENT
-------------
                                X             Y             Z
Electronic contribution:     -0.11826       0.08047       0.07766
Nuclear contribution   :      0.70614      -0.50230      -0.44645
                        -----------------------------------------
Total Dipole Moment    :      0.58788      -0.42182      -0.36879
                        -----------------------------------------
Magnitude (a.u.)       :      0.81213
Magnitude (Debye)      :      2.06426

Rotational constants in cm-1:    27.474514    14.033817     9.289034
Rotational constants in MHz : 823665.217431 420723.257281 278478.240701

                             ****ORCA TERMINATED NORMALLY****
TOTAL RUN TIME: 0 days 0 hours 0 minutes 1 seconds 720 msec
