                         Program Version 4.2.0 -  RELEASE  -
|  1> ! dlpno-ccsd(t) cc-pvdz cc-pvdz/c cc-pvtz/jk rijk verytightscf TightPNO
|  2> *xyz 0 1
|  3>   C      0.158328    0.108721    0.233327
|  4>   H      1.032407   -0.083436   -0.419629
|  5>   H     -0.105718    1.160959    0.009695
|  6>   O     -1.505910   -1.337873    2.272245
|  7>   H     -0.929295   -0.931121    1.599741
|  8>   H     -1.123517   -2.199945    2.444084
|  9> **                         ****END OF INPUT****

CARTESIAN COORDINATES (ANGSTROEM)
---------------------------------
  C      0.158328    0.108721    0.233327
  H      1.032407   -0.083436   -0.419629
  H     -0.105718    1.160959    0.009695
  O     -1.505910   -1.337873    2.272245
  H     -0.929295   -0.931121    1.599741
  H     -1.123517   -2.199945    2.444084

 Total Charge           Charge          ....    0
 Multiplicity           Mult            ....    1
 Number of Electrons    NEL             ....   18
 Basis Dimension        Dim             ....   48

ORBITAL ENERGIES
----------------

  NO   OCC          E(Eh)            E(eV)
   0   2.0000     -20.501152      -557.8647
   1   2.0000     -11.317410      -307.9624
   2   2.0000      -1.287110       -35.0240
   3   2.0000      -0.912513       -24.8307
   4   2.0000      -0.657147       -17.8819
   5   2.0000      -0.585290       -15.9266
   6   2.0000      -0.526656       -14.3311
   7   2.0000      -0.448011       -12.1910
   8   2.0000      -0.414514       -11.2795
   9   0.0000       0.038961         1.0602
  10   0.0000       0.178889         4.8678
  11   0.0000       0.237620         6.4660
  12   0.0000       0.243304         6.6206
  13   0.0000       0.395773        10.7695

MULLIKEN ATOMIC CHARGES
-----------------------
   0 C :   -0.136195
   1 H :    0.074627
   2 H :    0.080182
   3 O :   -0.367567
   4 H :    0.214837
   5 H :    0.134116
Sum of atomic charges:   -0.0000000

LOEWDIN ATOMIC CHARGES
----------------------
   0 C :    0.075618
   1 H :    0.007851
   2 H :    0.011503
   3 O :   -0.135286
   4 H :    0.006024
   5 H :    0.034289

  Mayer bond orders larger than 0.100000
B(  0-C ,  1-H ) :   0.9810 B(  0-C ,  2-H ) :   0.9812 B(  3-O ,  4-H ) :   0.9744
B(  3-O ,  5-H ) :   1.0274

E(0)                                       ...   -114.913308664
E(0)                                       ...   -114.913308664
E(CORR)(strong-pairs)                      ...     -0.350569408
E(CORR)(weak-pairs)                        ...     -0.000019732
E(CORR)(corrected)                         ...     -0.350589140
E(TOT)                                     ...   -115.263897804
E(CCSD(T))                                 ...   -115.269998158
FINAL SINGLE POINT ENERGY      -115.269998157573

DIPOLE MOMENT
-------------
                                X             Y             Z
Electronic contribution:     -0.52508      -0.32616       0.56349
Nuclear contribution   :      1.66396       0.66023      -1.59183
                        -----------------------------------------
Total Dipole Moment    :      1.13887       0.33407      -1.02834
                        -----------------------------------------
Magnitude (a.u.)       :      1.57039
Magnitude (Debye)      :      3.99161

Rotational constants in cm-1:     7.426533     0.221986     0.215572
Rotational constants in MHz : 222641.858373  6654.981033  6462.700161

                             ****ORCA TERMINATED NORMALLY****
TOTAL RUN TIME: 0 days 0 hours 0 minutes 8 seconds 656 msec
