                         Program Version 4.2.0 -  RELEASE  -
|  1> ! dlpno-ccsd(t) cc-pvdz cc-pvdz/c cc-pvtz/jk rijk verytightscf TightPNO
|  2>
|  3> *xyz 0 1
|  4> C 0.18726407287156 0.08210467619149 0.19811955853244
|  5> H 1.07120465088431 -0.00229078749404 -0.46002874025040
|  6> H -0.15524644515923 1.12171178448874 0.04316776563623
|  7> **                         ****END OF INPUT****

CARTESIAN COORDINATES (ANGSTROEM)
---------------------------------
  C      0.187264    0.082105    0.198120
  H      1.071205   -0.002291   -0.460029
  H     -0.155246    1.121712    0.043168

 Total Charge           Charge          ....    0
 Multiplicity           Mult            ....    1
 Number of Electrons    NEL             ....    8
 Basis Dimension        Dim             ....   24

ORBITAL ENERGIES
----------------

  NO   OCC          E(Eh)            E(eV)
   0   2.0000     -11.291808      -307.2657
   1   2.0000      -0.888813       -24.1858
   2   2.0000      -0.563159       -15.3243
   3   2.0000      -0.387591       -10.5469
   4   0.0000       0.063272         1.7217
   5   0.0000       0.196217         5.3393
   6   0.0000       0.261076         7.1042
   7   0.0000       0.589768        16.0484
   8   0.0000       0.692550        18.8452

MULLIKEN ATOMIC CHARGES
-----------------------
   0 C :   -0.117841
   1 H :    0.058919
   2 H :    0.058921
Sum of atomic charges:   -0.0000000

LOEWDIN ATOMIC CHARGES
----------------------
   0 C :    0.000874
   1 H :   -0.000464
   2 H :   -0.000410

  Mayer bond orders larger than 0.100000
B(  0-C ,  1-H ) :   0.9818 B(  0-C ,  2-H ) :   0.9818

E(0)                                       ...    -38.881078959
E(0)                                       ...    -38.881078959
E(CORR)(strong-pairs)                      ...     -0.137987089
E(CORR)(weak-pairs)                        ...     -0.000000185
E(CORR)(corrected)                         ...     -0.137987274
E(TOT)                                     ...    -39.019066232
E(CCSD(T))                                 ...    -39.021930621
FINAL SINGLE POINT ENERGY       -39.021930620790

DIPOLE MOMENT
-------------
                                X             Y             Z
Electronic contribution:     -0.12999      -0.22969       0.19536
Nuclear contribution   :      0.43495       0.76736      -0.65320
                        -----------------------------------------
Total Dipole Moment    :      0.30496       0.53767      -0.45783
                        -----------------------------------------
Magnitude (a.u.)       :      0.76922
Magnitude (Debye)      :      1.95521

Rotational constants in cm-1:    20.925495    11.072573     7.241033
Rotational constants in MHz : 627330.566715 331947.402047 217080.719694

                             ****ORCA TERMINATED NORMALLY****
TOTAL RUN TIME: 0 days 0 hours 0 minutes 3 seconds 167 msec
