                         Program Version 4.2.0 -  RELEASE  -
|  1> ! PBE0 D3 def2-TZVP Opt
|  2>
|  3> *xyz 0 1
|  4> O -1.47509614629583 -1.29358571885374 2.29818864036820
|  5> H -0.87783948760158 -0.98540169212890 1.58987042714267
|  6> H -1.22399221548771 -2.20523304094991 2.47014489963764
|  7> **                         ****END OF INPUT****
 Total Charge           Charge          ....    0
 Multiplicity           Mult            ....    1
 Number of Electrons    NEL             ....   10
Dispersion correction           -0.000276860
FINAL SINGLE POINT ENERGY       -76.377314818601
Dispersion correction            ... done
Dispersion correction           -0.000276854
FINAL SINGLE POINT ENERGY       -76.377602348245
Dispersion correction            ... done
Dispersion correction           -0.000276855
FINAL SINGLE POINT ENERGY       -76.377603801243
Dispersion correction            ... done
                    ***********************HURRAY********************

CARTESIAN COORDINATES (ANGSTROEM)
---------------------------------
  O     -1.472909   -1.290102    2.294532
  H     -0.882631   -0.994011    1.598322
  H     -1.221388   -2.200108    2.465350

 Multiplicity           Mult            ....    1
 Number of Electrons    NEL             ....   10
 Basis Dimension        Dim             ....   43

ORBITAL ENERGIES
----------------

  NO   OCC          E(Eh)            E(eV)
   0   2.0000     -19.201449      -522.4980
   1   2.0000      -1.038871       -28.2691
   2   2.0000      -0.546958       -14.8835
   3   2.0000      -0.402302       -10.9472
   4   2.0000      -0.326842        -8.8938
   5   0.0000       0.031617         0.8604
   6   0.0000       0.106460         2.8969
   7   0.0000       0.374490        10.1904
   8   0.0000       0.423010        11.5107
   9   0.0000       0.444809        12.1039

MULLIKEN ATOMIC CHARGES
-----------------------
   0 O :   -0.646523
   1 H :    0.323105
   2 H :    0.323418
Sum of atomic charges:    0.0000000

LOEWDIN ATOMIC CHARGES
----------------------
   0 O :   -0.307892
   1 H :    0.153925
   2 H :    0.153966

  Mayer bond orders larger than 0.100000
B(  0-O ,  1-H ) :   0.9077 B(  0-O ,  2-H ) :   0.9072

Dispersion correction           -0.000276856
FINAL SINGLE POINT ENERGY       -76.377603898163

DIPOLE MOMENT
-------------
                                X             Y             Z
Electronic contribution:     -0.11347       0.08319       0.07185
Nuclear contribution   :      0.70068      -0.51100      -0.43732
                        -----------------------------------------
Total Dipole Moment    :      0.58721      -0.42781      -0.36546
                        -----------------------------------------
Magnitude (a.u.)       :      0.81326
Magnitude (Debye)      :      2.06715

Rotational constants in cm-1:    27.661278    14.409883     9.474323
Rotational constants in MHz : 829264.258585 431997.411156 284033.061075

                             ****ORCA TERMINATED NORMALLY****
TOTAL RUN TIME: 0 days 0 hours 0 minutes 6 seconds 625 msec
