                         Program Version 4.2.0 -  RELEASE  -
|  1> ! dlpno-ccsd(t) cc-pvdz cc-pvdz/c cc-pvtz/jk rijk verytightscf TightPNO
|  2>
|  3> *xyz 0 1
|  4>   O     -1.472909   -1.290102    2.294532
|  5>   H     -0.882631   -0.994011    1.598322
|  6>   H     -1.221388   -2.200108    2.465350
|  7> **                         ****END OF INPUT****

CARTESIAN COORDINATES (ANGSTROEM)
---------------------------------
  O     -1.472909   -1.290102    2.294532
  H     -0.882631   -0.994011    1.598322
  H     -1.221388   -2.200108    2.465350

 Total Charge           Charge          ....    0
 Multiplicity           Mult            ....    1
 Number of Electrons    NEL             ....   10
 Basis Dimension        Dim             ....   24

ORBITAL ENERGIES
----------------

  NO   OCC          E(Eh)            E(eV)
   0   2.0000     -20.550505      -559.2077
   1   2.0000      -1.335069       -36.3291
   2   2.0000      -0.699196       -19.0261
   3   2.0000      -0.564941       -15.3728
   4   2.0000      -0.492766       -13.4088
   5   0.0000       0.185315         5.0427
   6   0.0000       0.255838         6.9617
   7   0.0000       0.789753        21.4903
   8   0.0000       0.849504        23.1162
   9   0.0000       1.163336        31.6560

MULLIKEN ATOMIC CHARGES
-----------------------
   0 O :   -0.309650
   1 H :    0.154857
   2 H :    0.154794
Sum of atomic charges:    0.0000000

LOEWDIN ATOMIC CHARGES
----------------------
   0 O :   -0.097131
   1 H :    0.048616
   2 H :    0.048516

  Mayer bond orders larger than 0.100000
B(  0-O ,  1-H ) :   1.0193 B(  0-O ,  2-H ) :   1.0193

E(0)                                       ...    -76.026655845
E(0)                                       ...    -76.026655845
E(CORR)(strong-pairs)                      ...     -0.211428806
E(CORR)(weak-pairs)                        ...     -0.000000337
E(CORR)(corrected)                         ...     -0.211429143
E(TOT)                                     ...    -76.238084988
E(CCSD(T))                                 ...    -76.241017788
FINAL SINGLE POINT ENERGY       -76.241017787938

DIPOLE MOMENT
-------------
                                X             Y             Z
Electronic contribution:     -0.11894       0.08671       0.07425
Nuclear contribution   :      0.70068      -0.51100      -0.43732
                        -----------------------------------------
Total Dipole Moment    :      0.58174      -0.42429      -0.36307
                        -----------------------------------------
Magnitude (a.u.)       :      0.80639
Magnitude (Debye)      :      2.04967

Rotational constants in cm-1:    27.661324    14.409887     9.474330
Rotational constants in MHz : 829265.625822 431997.529492 284033.272627

                             ****ORCA TERMINATED NORMALLY****
TOTAL RUN TIME: 0 days 0 hours 0 minutes 3 seconds 473 msec
