                         Program Version 5.0.0 -  RELEASE  -
|  1> ! dlpno-ccsd(t) cc-pvdz cc-pvdz/c cc-pvtz/jk rijk verytightscf TightPNO LED
|  2> *xyz 0 1
|  3>   C(1)      0.187264    0.082105    0.198120
|  4>   H(1)      1.071205   -0.002291   -0.460029
|  5>   H(1)     -0.155246    1.121712    0.043168
|  6>   O(2)     -1.475096   -1.293586    2.298189
|  7>   H(2)     -0.877839   -0.985402    1.589870
|  8>   H(2)     -1.223992   -2.205233    2.470145
|  9> **                         ****END OF INPUT****

CARTESIAN COORDINATES (ANGSTROEM)
---------------------------------
  C      0.187264    0.082105    0.198120
  H      1.071205   -0.002291   -0.460029
  H     -0.155246    1.121712    0.043168
  O     -1.475096   -1.293586    2.298189
  H     -0.877839   -0.985402    1.589870
  H     -1.223992   -2.205233    2.470145

 Total Charge           Charge          ....    0
 Multiplicity           Mult            ....    1
 Number of Electrons    NEL             ....   18
 Basis Dimension        Dim             ....   48

ORBITAL ENERGIES
----------------

  NO   OCC          E(Eh)            E(eV)
   0   2.0000     -20.503229      -557.9212
   1   2.0000     -11.315496      -307.9103
   2   2.0000      -1.287394       -35.0318
   3   2.0000      -0.911714       -24.8090
   4   2.0000      -0.658180       -17.9100
   5   2.0000      -0.584560       -15.9067
   6   2.0000      -0.526062       -14.3149
   7   2.0000      -0.449366       -12.2279
   8   2.0000      -0.413499       -11.2519
   9   0.0000       0.040520         1.1026
  10   0.0000       0.180526         4.9124
  11   0.0000       0.236006         6.4220
  12   0.0000       0.244821         6.6619
  13   0.0000       0.391319        10.6483

MULLIKEN ATOMIC CHARGES
-----------------------
   0 C :   -0.134010
   1 H :    0.073686
   2 H :    0.080443
   3 O :   -0.369870
   4 H :    0.211626
   5 H :    0.138126
Sum of atomic charges:    0.0000000

LOEWDIN ATOMIC CHARGES
----------------------
   0 C :    0.072199
   1 H :    0.006849
   2 H :    0.011434
   3 O :   -0.137139
   4 H :    0.010025
   5 H :    0.036632

  Mayer bond orders larger than 0.100000
B(  0-C ,  1-H ) :   0.9813 B(  0-C ,  2-H ) :   0.9813 B(  3-O ,  4-H ) :   0.9731
B(  3-O ,  5-H ) :   1.0254

E(0)                                       ...   -114.913220734
E(0)                                       ...   -114.913220734
E(CORR)(strong-pairs)                      ...     -0.350500454
E(CORR)(weak-pairs)                        ...     -0.000018903
E(CORR)(corrected)                         ...     -0.350519358
E(TOT)                                     ...   -115.263740092
E(CCSD(T))                                 ...   -115.269820728
FINAL SINGLE POINT ENERGY      -115.269820727731

DIPOLE MOMENT
-------------
                                X             Y             Z
Electronic contribution:     -0.49352      -0.32547       0.56651
Nuclear contribution   :      1.51661       0.60068      -1.58294
                        -----------------------------------------
Total Dipole Moment    :      1.02309       0.27521      -1.01642
                        -----------------------------------------
Magnitude (a.u.)       :      1.46818
Magnitude (Debye)      :      3.73182

Rotational constants in cm-1:     7.677742     0.220418     0.214289
Rotational constants in MHz : 230172.928249  6607.973716  6424.236843

                             ****ORCA TERMINATED NORMALLY****
TOTAL RUN TIME: 0 days 0 hours 0 minutes 14 seconds 812 msec
