                         Program Version 4.2.0 -  RELEASE  -
|  1> ! PBE0 D3 def2-TZVP Opt
|  2>
|  3> *xyz 0 1
|  4> C 0.18726407287156 0.08210467619149 0.19811955853244
|  5> H 1.07120465088431 -0.00229078749404 -0.46002874025040
|  6> H -0.15524644515923 1.12171178448874 0.04316776563623
|  7> **                         ****END OF INPUT****
 Total Charge           Charge          ....    0
 Multiplicity           Mult            ....    1
 Number of Electrons    NEL             ....    8
Dispersion correction           -0.000400675
FINAL SINGLE POINT ENERGY       -39.087459893337
Dispersion correction            ... done
Dispersion correction           -0.000400741
FINAL SINGLE POINT ENERGY       -39.087560803299
Dispersion correction            ... done
Dispersion correction           -0.000400801
FINAL SINGLE POINT ENERGY       -39.087590716249
Dispersion correction            ... done
Dispersion correction           -0.000400803
FINAL SINGLE POINT ENERGY       -39.087590963429
Dispersion correction            ... done
                    ***********************HURRAY********************

CARTESIAN COORDINATES (ANGSTROEM)
---------------------------------
  C      0.181852    0.072684    0.206196
  H      1.068934    0.007009   -0.462036
  H     -0.147563    1.121833    0.037099

 Multiplicity           Mult            ....    1
 Number of Electrons    NEL             ....    8
 Basis Dimension        Dim             ....   43

ORBITAL ENERGIES
----------------

  NO   OCC          E(Eh)            E(eV)
   0   2.0000     -10.297797      -280.2173
   1   2.0000      -0.691569       -18.8185
   2   2.0000      -0.422647       -11.5008
   3   2.0000      -0.268602        -7.3090
   4   0.0000      -0.129614        -3.5270
   5   0.0000       0.068549         1.8653
   6   0.0000       0.122054         3.3212
   7   0.0000       0.223345         6.0775
   8   0.0000       0.242329         6.5941

MULLIKEN ATOMIC CHARGES
-----------------------
   0 C :   -0.272856
   1 H :    0.136244
   2 H :    0.136613
Sum of atomic charges:    0.0000000

LOEWDIN ATOMIC CHARGES
----------------------
   0 C :   -0.169607
   1 H :    0.084795
   2 H :    0.084811

  Mayer bond orders larger than 0.100000
B(  0-C ,  1-H ) :   0.9390 B(  0-C ,  2-H ) :   0.9387

Dispersion correction           -0.000400802
FINAL SINGLE POINT ENERGY       -39.087590975997

DIPOLE MOMENT
-------------
                                X             Y             Z
Electronic contribution:     -0.14952      -0.26665       0.22693
Nuclear contribution   :      0.44800       0.79006      -0.67266
                        -----------------------------------------
Total Dipole Moment    :      0.29848       0.52341      -0.44572
                        -----------------------------------------
Magnitude (a.u.)       :      0.74948
Magnitude (Debye)      :      1.90502

Rotational constants in cm-1:    19.734846    11.254905     7.167332
Rotational constants in MHz : 591635.806738 337413.572539 214871.195920

                             ****ORCA TERMINATED NORMALLY****
TOTAL RUN TIME: 0 days 0 hours 0 minutes 10 seconds 452 msec
